CCl3. molecule HF/cc-pVTZ                                               
SP        UHF                                                         CC-pVTZ             
Number of atoms                            I                4
Info1-9                                    I   N=           9
          11          11           0           0           0         110
           1           1           2
Full Title                                 C   N=           3
CCl3. molecule HF/cc-pVTZ           
Route                                      C   N=           4
#P UHF cc-pVTZ SCF=DIRECT SCFCON=8 GEOM=COORD   
Charge                                     I                0
Multiplicity                               I                2
Number of electrons                        I               57
Number of alpha electrons                  I               29
Number of beta electrons                   I               28
Number of basis functions                  I              132
Number of independent functions            I              132
Number of point charges in /Mol/           I                0
Number of translation vectors              I                0
Atomic numbers                             I   N=           4
           6          17          17          17
Nuclear charges                            R   N=           4
   6.0000000000000000E+00   1.7000000000000000E+01   1.7000000000000000E+01
   1.7000000000000000E+01
Current cartesian coordinates              R   N=          12
  -6.2328310154394750E-17  -2.4931324061757900E-16   5.1824605130522094E-01
  -2.8992549177015910E-07   3.1929266134920922E+00  -6.0970123682967184E-02
   2.7651557046663147E+00  -1.5964630556632069E+00  -6.0970123682967184E-02
  -2.7651554147408244E+00  -1.5964635578288870E+00  -6.0970123682967184E-02
Number of symbols in /Mol/                 I                0
Int Atom Types                             I   N=           4
           0           0           0           0
Force Field                                I                0
Atom Types                                 C   N=           4
                                                
MM charges                                 R   N=           4
   0.0000000000000000E+00   0.0000000000000000E+00   0.0000000000000000E+00
   0.0000000000000000E+00
Integer atomic weights                     I   N=           4
          12          35          35          35
Real atomic weights                        R   N=           4
   1.2000000000000000E+01   3.4968852728999998E+01   3.4968852728999998E+01
   3.4968852728999998E+01
Atom fragment info                         I   N=           4
           0           0           0           0
Atom residue num                           I   N=           4
           0           0           0           0
Nuclear spins                              I   N=           4
           0           3           3           3
Nuclear ZEff                               R   N=           4
  -3.6000000000000001E+00  -1.4240000000000000E+01  -1.4240000000000000E+01
  -1.4240000000000000E+01
Nuclear ZNuc                               R   N=           4
   6.0000000000000000E+00   1.7000000000000000E+01   1.7000000000000000E+01
   1.7000000000000000E+01
Nuclear QMom                               R   N=           4
   0.0000000000000000E+00  -8.1649999999999991E+00  -8.1649999999999991E+00
  -8.1649999999999991E+00
Nuclear GFac                               R   N=           4
   0.0000000000000000E+00   8.2187399999999999E-01   8.2187399999999999E-01
   8.2187399999999999E-01
MicOpt                                     I   N=           4
          -1          -1          -1          -1
Number of residues                         I                0
Number of secondary structures             I                0
SymInf integers                            I   N=          26
           2           2           1           1           1          -1
           1           1           0           0           0           0
           0           0           0           0           0           0
           0           0           0           0           0           0
           0           0
RotTr to input orientation                 R   N=          12
   9.9999999999999589E-01   9.0802428867497765E-08   0.0000000000000000E+00
  -9.0802428868605419E-08   9.9999999999999589E-01   0.0000000000000000E+00
   0.0000000000000000E+00   0.0000000000000000E+00   1.0000000000000000E+00
  -6.2328310154394750E-17  -2.4931324061757900E-16  -2.4346996154060449E-19
Number of contracted shells                I               46
Number of primitive shells                 I              164
Pure/Cartesian d shells                    I                0
Pure/Cartesian f shells                    I                0
Highest angular momentum                   I                3
Largest degree of contraction              I               11
Shell types                                I   N=          46
           0           0           0           0           1           1
           1          -2          -2          -3           0           0
           0           0           0           1           1           1
           1          -2          -2          -3           0           0
           0           0           0           1           1           1
           1          -2          -2          -3           0           0
           0           0           0           1           1           1
           1          -2          -2          -3
Number of primitives per shell             I   N=          46
           7           6           1           1           3           1
           1           1           1           1          11           9
           8           1           1           6           6           1
           1           1           1           1          11           9
           8           1           1           6           6           1
           1           1           1           1          11           9
           8           1           1           6           6           1
           1           1           1           1
Shell to atom map                          I   N=          46
           1           1           1           1           1           1
           1           1           1           1           2           2
           2           2           2           2           2           2
           2           2           2           2           3           3
           3           3           3           3           3           3
           3           3           3           3           4           4
           4           4           4           4           4           4
           4           4           4           4
Primitive exponents                        R   N=         164
   8.2360000000000000E+03   1.2350000000000000E+03   2.8080000000000001E+02
   7.9269999999999996E+01   2.5590000000000000E+01   8.9969999999999999E+00
   3.3190000000000000E+00   2.8080000000000001E+02   7.9269999999999996E+01
   2.5590000000000000E+01   8.9969999999999999E+00   3.3190000000000000E+00
   3.6430000000000001E-01   9.0590000000000004E-01   1.2850000000000000E-01
   1.8710000000000001E+01   4.1330000000000000E+00   1.2000000000000000E+00
   3.8269999999999998E-01   1.2089999999999999E-01   1.0970000000000000E+00
   3.1800000000000000E-01   7.6100000000000001E-01   4.5610000000000000E+05
   6.8330000000000000E+04   1.5550000000000000E+04   4.4050000000000000E+03
   1.4390000000000000E+03   5.2039999999999998E+02   2.0309999999999999E+02
   8.3959999999999994E+01   3.6200000000000003E+01   1.5830000000000000E+01
   6.3339999999999996E+00   4.4050000000000000E+03   1.4390000000000000E+03
   5.2039999999999998E+02   2.0309999999999999E+02   8.3959999999999994E+01
   3.6200000000000003E+01   1.5830000000000000E+01   6.3339999999999996E+00
   2.6940000000000000E+00   1.4390000000000000E+03   2.0309999999999999E+02
   8.3959999999999994E+01   3.6200000000000003E+01   1.5830000000000000E+01
   6.3339999999999996E+00   2.6940000000000000E+00   4.3130000000000002E-01
   9.7680000000000000E-01   1.6250000000000001E-01   6.6329999999999995E+02
   1.5680000000000001E+02   4.9979999999999997E+01   1.8420000000000002E+01
   7.2400000000000002E+00   2.9220000000000002E+00   1.5680000000000001E+02
   4.9979999999999997E+01   1.8420000000000002E+01   7.2400000000000002E+00
   2.9220000000000002E+00   3.8179999999999997E-01   1.0220000000000000E+00
   1.3009999999999999E-01   1.0460000000000000E+00   3.4399999999999997E-01
   7.0599999999999996E-01   4.5610000000000000E+05   6.8330000000000000E+04
   1.5550000000000000E+04   4.4050000000000000E+03   1.4390000000000000E+03
   5.2039999999999998E+02   2.0309999999999999E+02   8.3959999999999994E+01
   3.6200000000000003E+01   1.5830000000000000E+01   6.3339999999999996E+00
   4.4050000000000000E+03   1.4390000000000000E+03   5.2039999999999998E+02
   2.0309999999999999E+02   8.3959999999999994E+01   3.6200000000000003E+01
   1.5830000000000000E+01   6.3339999999999996E+00   2.6940000000000000E+00
   1.4390000000000000E+03   2.0309999999999999E+02   8.3959999999999994E+01
   3.6200000000000003E+01   1.5830000000000000E+01   6.3339999999999996E+00
   2.6940000000000000E+00   4.3130000000000002E-01   9.7680000000000000E-01
   1.6250000000000001E-01   6.6329999999999995E+02   1.5680000000000001E+02
   4.9979999999999997E+01   1.8420000000000002E+01   7.2400000000000002E+00
   2.9220000000000002E+00   1.5680000000000001E+02   4.9979999999999997E+01
   1.8420000000000002E+01   7.2400000000000002E+00   2.9220000000000002E+00
   3.8179999999999997E-01   1.0220000000000000E+00   1.3009999999999999E-01
   1.0460000000000000E+00   3.4399999999999997E-01   7.0599999999999996E-01
   4.5610000000000000E+05   6.8330000000000000E+04   1.5550000000000000E+04
   4.4050000000000000E+03   1.4390000000000000E+03   5.2039999999999998E+02
   2.0309999999999999E+02   8.3959999999999994E+01   3.6200000000000003E+01
   1.5830000000000000E+01   6.3339999999999996E+00   4.4050000000000000E+03
   1.4390000000000000E+03   5.2039999999999998E+02   2.0309999999999999E+02
   8.3959999999999994E+01   3.6200000000000003E+01   1.5830000000000000E+01
   6.3339999999999996E+00   2.6940000000000000E+00   1.4390000000000000E+03
   2.0309999999999999E+02   8.3959999999999994E+01   3.6200000000000003E+01
   1.5830000000000000E+01   6.3339999999999996E+00   2.6940000000000000E+00
   4.3130000000000002E-01   9.7680000000000000E-01   1.6250000000000001E-01
   6.6329999999999995E+02   1.5680000000000001E+02   4.9979999999999997E+01
   1.8420000000000002E+01   7.2400000000000002E+00   2.9220000000000002E+00
   1.5680000000000001E+02   4.9979999999999997E+01   1.8420000000000002E+01
   7.2400000000000002E+00   2.9220000000000002E+00   3.8179999999999997E-01
   1.0220000000000000E+00   1.3009999999999999E-01   1.0460000000000000E+00
   3.4399999999999997E-01   7.0599999999999996E-01
Contraction coefficients                   R   N=         164
   5.4197832030771680E-04   4.1928738173783696E-03   2.1522162053874749E-02
   8.3534321953721513E-02   2.3958284574264968E-01   4.4285284194362756E-01
   3.5179956178947575E-01  -5.9492249370640652E-05  -1.1481583104037607E-03
  -1.0019137447208027E-02  -6.1219492301077226E-02  -1.7326985413502838E-01
   1.0729151923760190E+00   1.0000000000000000E+00   1.0000000000000000E+00
   3.9426387164983229E-02   2.4408898492434133E-01   8.1549200894253948E-01
   1.0000000000000000E+00   1.0000000000000002E+00   1.0000000000000000E+00
   1.0000000000000002E+00   1.0000000000000002E+00   4.9322947680715179E-05
   3.8320796726531932E-04   2.0094781555740466E-03   8.3895012387854226E-03
   2.9484395045581112E-02   8.7875994788222167E-02   2.1158975879606387E-01
   3.6561155426681607E-01   3.4124634968793344E-01   1.0216257028756114E-01
   2.1424994879655807E-03  -2.2174792489013240E-06  -1.7118970805496327E-04
  -1.2792284606251781E-03  -9.3295626530250572E-03  -3.9891006236372997E-02
  -1.0553608470549448E-01   9.3620244606643262E-03   5.1051114020523736E-01
   5.7315073654737103E-01   4.0394924524502482E-06   2.1248176519504070E-04
   8.5948445248634037E-04   4.6324815919529267E-03   4.4734348979883517E-04
  -7.3843824475873066E-02  -3.6227199415078742E-01   1.1662033722125769E+00
   1.0000000000000000E+00   9.9999999999999989E-01   2.4720640245184918E-03
   1.9755023383366700E-02   9.0991735478413424E-02   2.6318783406568869E-01
   4.4907807321803733E-01   3.6018307230656604E-01   3.0342780885608250E-05
  -1.2247582585510463E-03  -6.0142977162184067E-03  -2.7640132269161906E-02
   4.3510561217347926E-04   1.0030727247821158E+00   1.0000000000000000E+00
   1.0000000000000002E+00   1.0000000000000000E+00   1.0000000000000002E+00
   1.0000000000000000E+00   4.9322947680715179E-05   3.8320796726531932E-04
   2.0094781555740466E-03   8.3895012387854226E-03   2.9484395045581112E-02
   8.7875994788222167E-02   2.1158975879606387E-01   3.6561155426681607E-01
   3.4124634968793344E-01   1.0216257028756114E-01   2.1424994879655807E-03
  -2.2174792489013240E-06  -1.7118970805496327E-04  -1.2792284606251781E-03
  -9.3295626530250572E-03  -3.9891006236372997E-02  -1.0553608470549448E-01
   9.3620244606643262E-03   5.1051114020523736E-01   5.7315073654737103E-01
   4.0394924524502482E-06   2.1248176519504070E-04   8.5948445248634037E-04
   4.6324815919529267E-03   4.4734348979883517E-04  -7.3843824475873066E-02
  -3.6227199415078742E-01   1.1662033722125769E+00   1.0000000000000000E+00
   9.9999999999999989E-01   2.4720640245184918E-03   1.9755023383366700E-02
   9.0991735478413424E-02   2.6318783406568869E-01   4.4907807321803733E-01
   3.6018307230656604E-01   3.0342780885608250E-05  -1.2247582585510463E-03
  -6.0142977162184067E-03  -2.7640132269161906E-02   4.3510561217347926E-04
   1.0030727247821158E+00   1.0000000000000000E+00   1.0000000000000002E+00
   1.0000000000000000E+00   1.0000000000000002E+00   1.0000000000000000E+00
   4.9322947680715179E-05   3.8320796726531932E-04   2.0094781555740466E-03
   8.3895012387854226E-03   2.9484395045581112E-02   8.7875994788222167E-02
   2.1158975879606387E-01   3.6561155426681607E-01   3.4124634968793344E-01
   1.0216257028756114E-01   2.1424994879655807E-03  -2.2174792489013240E-06
  -1.7118970805496327E-04  -1.2792284606251781E-03  -9.3295626530250572E-03
  -3.9891006236372997E-02  -1.0553608470549448E-01   9.3620244606643262E-03
   5.1051114020523736E-01   5.7315073654737103E-01   4.0394924524502482E-06
   2.1248176519504070E-04   8.5948445248634037E-04   4.6324815919529267E-03
   4.4734348979883517E-04  -7.3843824475873066E-02  -3.6227199415078742E-01
   1.1662033722125769E+00   1.0000000000000000E+00   9.9999999999999989E-01
   2.4720640245184918E-03   1.9755023383366700E-02   9.0991735478413424E-02
   2.6318783406568869E-01   4.4907807321803733E-01   3.6018307230656604E-01
   3.0342780885608250E-05  -1.2247582585510463E-03  -6.0142977162184067E-03
  -2.7640132269161906E-02   4.3510561217347926E-04   1.0030727247821158E+00
   1.0000000000000000E+00   1.0000000000000002E+00   1.0000000000000000E+00
   1.0000000000000002E+00   1.0000000000000000E+00
Coordinates of each shell                  R   N=         138
   0.0000000000000000E+00   0.0000000000000000E+00   5.1824605130522094E-01
   0.0000000000000000E+00   0.0000000000000000E+00   5.1824605130522094E-01
   0.0000000000000000E+00   0.0000000000000000E+00   5.1824605130522094E-01
   0.0000000000000000E+00   0.0000000000000000E+00   5.1824605130522094E-01
   0.0000000000000000E+00   0.0000000000000000E+00   5.1824605130522094E-01
   0.0000000000000000E+00   0.0000000000000000E+00   5.1824605130522094E-01
   0.0000000000000000E+00   0.0000000000000000E+00   5.1824605130522094E-01
   0.0000000000000000E+00   0.0000000000000000E+00   5.1824605130522094E-01
   0.0000000000000000E+00   0.0000000000000000E+00   5.1824605130522094E-01
   0.0000000000000000E+00   0.0000000000000000E+00   5.1824605130522094E-01
  -3.5366801921419243E-18   3.1929266134921059E+00  -6.0970123682967184E-02
  -3.5366801921419243E-18   3.1929266134921059E+00  -6.0970123682967184E-02
  -3.5366801921419243E-18   3.1929266134921059E+00  -6.0970123682967184E-02
  -3.5366801921419243E-18   3.1929266134921059E+00  -6.0970123682967184E-02
  -3.5366801921419243E-18   3.1929266134921059E+00  -6.0970123682967184E-02
  -3.5366801921419243E-18   3.1929266134921059E+00  -6.0970123682967184E-02
  -3.5366801921419243E-18   3.1929266134921059E+00  -6.0970123682967184E-02
  -3.5366801921419243E-18   3.1929266134921059E+00  -6.0970123682967184E-02
  -3.5366801921419243E-18   3.1929266134921059E+00  -6.0970123682967184E-02
  -3.5366801921419243E-18   3.1929266134921059E+00  -6.0970123682967184E-02
  -3.5366801921419243E-18   3.1929266134921059E+00  -6.0970123682967184E-02
  -3.5366801921419243E-18   3.1929266134921059E+00  -6.0970123682967184E-02
   2.7651555597035804E+00  -1.5964633067460543E+00  -6.0970123682967184E-02
   2.7651555597035804E+00  -1.5964633067460543E+00  -6.0970123682967184E-02
   2.7651555597035804E+00  -1.5964633067460543E+00  -6.0970123682967184E-02
   2.7651555597035804E+00  -1.5964633067460543E+00  -6.0970123682967184E-02
   2.7651555597035804E+00  -1.5964633067460543E+00  -6.0970123682967184E-02
   2.7651555597035804E+00  -1.5964633067460543E+00  -6.0970123682967184E-02
   2.7651555597035804E+00  -1.5964633067460543E+00  -6.0970123682967184E-02
   2.7651555597035804E+00  -1.5964633067460543E+00  -6.0970123682967184E-02
   2.7651555597035804E+00  -1.5964633067460543E+00  -6.0970123682967184E-02
   2.7651555597035804E+00  -1.5964633067460543E+00  -6.0970123682967184E-02
   2.7651555597035804E+00  -1.5964633067460543E+00  -6.0970123682967184E-02
   2.7651555597035804E+00  -1.5964633067460543E+00  -6.0970123682967184E-02
  -2.7651555597035817E+00  -1.5964633067460523E+00  -6.0970123682967184E-02
  -2.7651555597035817E+00  -1.5964633067460523E+00  -6.0970123682967184E-02
  -2.7651555597035817E+00  -1.5964633067460523E+00  -6.0970123682967184E-02
  -2.7651555597035817E+00  -1.5964633067460523E+00  -6.0970123682967184E-02
  -2.7651555597035817E+00  -1.5964633067460523E+00  -6.0970123682967184E-02
  -2.7651555597035817E+00  -1.5964633067460523E+00  -6.0970123682967184E-02
  -2.7651555597035817E+00  -1.5964633067460523E+00  -6.0970123682967184E-02
  -2.7651555597035817E+00  -1.5964633067460523E+00  -6.0970123682967184E-02
  -2.7651555597035817E+00  -1.5964633067460523E+00  -6.0970123682967184E-02
  -2.7651555597035817E+00  -1.5964633067460523E+00  -6.0970123682967184E-02
  -2.7651555597035817E+00  -1.5964633067460523E+00  -6.0970123682967184E-02
  -2.7651555597035817E+00  -1.5964633067460523E+00  -6.0970123682967184E-02
Num ILSW                                   I              100
ILSW                                       I   N=         100
           1           0           0           0           2           0
           0           0           0           0           0          -1
           5           0           0           0           0           0
           0           0           0           0           0           0
           1           0           0           0           0           0
           0           0      100000           0          -1           0
           0           0           0           0           0           0
           0           0           0           1           0           0
           0 -2000000000           1           0           0           0
           0           0           4          52           0           0
           0           0           0           0           0           0
           0           0           0           4           0           1
           0           0           0           0           0           0
           0           0           0           0           0           0
           0           0           0           0           0           0
           0           0           0           0           0           0
           0           0           0           0
Num RLSW                                   I               52
RLSW                                       R   N=          52
   1.0000000000000000E+00   1.0000000000000000E+00   1.0000000000000000E+00
   1.0000000000000000E+00   1.0000000000000000E+00   0.0000000000000000E+00
   0.0000000000000000E+00   1.0000000000000000E+00   0.0000000000000000E+00
   0.0000000000000000E+00   0.0000000000000000E+00   0.0000000000000000E+00
   1.0000000000000000E+00   0.0000000000000000E+00   0.0000000000000000E+00
   0.0000000000000000E+00   0.0000000000000000E+00   1.0000000000000000E+00
   0.0000000000000000E+00   0.0000000000000000E+00   0.0000000000000000E+00
   0.0000000000000000E+00   1.0000000000000000E+00   0.0000000000000000E+00
   0.0000000000000000E+00   0.0000000000000000E+00   0.0000000000000000E+00
   1.0000000000000000E+00   0.0000000000000000E+00   0.0000000000000000E+00
   0.0000000000000000E+00   0.0000000000000000E+00   1.0000000000000000E+00
   0.0000000000000000E+00   0.0000000000000000E+00   0.0000000000000000E+00
   0.0000000000000000E+00   0.0000000000000000E+00   1.0000000000000000E+00
   1.0000000000000000E+00   0.0000000000000000E+00   1.0000000000000000E+00
   0.0000000000000000E+00   0.0000000000000000E+00   0.0000000000000000E+00
   0.0000000000000000E+00   0.0000000000000000E+00   0.0000000000000000E+00
   0.0000000000000000E+00   0.0000000000000000E+00   0.0000000000000000E+00
   0.0000000000000000E+00
MxBond                                     I                3
NBond                                      I   N=           4
           3           1           1           1
IBond                                      I   N=          12
           2           3           4           1           0           0
           1           0           0           1           0           0
RBond                                      R   N=          12
   1.0000000000000000E+00   1.0000000000000000E+00   1.0000000000000000E+00
   1.0000000000000000E+00   0.0000000000000000E+00   0.0000000000000000E+00
   1.0000000000000000E+00   0.0000000000000000E+00   0.0000000000000000E+00
   1.0000000000000000E+00   0.0000000000000000E+00   0.0000000000000000E+00
Virial Ratio                               R      2.000039897904366E+00
SCF Energy                                 R     -1.416377193708473E+03
Total Energy                               R     -1.416377193708473E+03
S**2                                       R      7.694342130458729E-01
S**2 after annihilation                    R      7.503296478640189E-01
RMS Density                                R      7.870460868558582E-09
Job Status                                 I                1
Nuclear derivative order                   I                0
External E-field                           R   N=          35
   0.0000000000000000E+00   0.0000000000000000E+00   0.0000000000000000E+00
   0.0000000000000000E+00   0.0000000000000000E+00   0.0000000000000000E+00
   0.0000000000000000E+00   0.0000000000000000E+00   0.0000000000000000E+00
   0.0000000000000000E+00   0.0000000000000000E+00   0.0000000000000000E+00
   0.0000000000000000E+00   0.0000000000000000E+00   0.0000000000000000E+00
   0.0000000000000000E+00   0.0000000000000000E+00   0.0000000000000000E+00
   0.0000000000000000E+00   0.0000000000000000E+00   0.0000000000000000E+00
   0.0000000000000000E+00   0.0000000000000000E+00   0.0000000000000000E+00
   0.0000000000000000E+00   0.0000000000000000E+00   0.0000000000000000E+00
   0.0000000000000000E+00   0.0000000000000000E+00   0.0000000000000000E+00
   0.0000000000000000E+00   0.0000000000000000E+00   0.0000000000000000E+00
   0.0000000000000000E+00   0.0000000000000000E+00
IOpCl                                      I                1
IROHF                                      I                0
Alpha Orbital Energies                     R   N=         132
  -1.0487736452167528E+02  -1.0487736452167415E+02  -1.0487736413958235E+02
  -1.1430361304444995E+01  -1.0602147268158674E+01  -1.0602147268158548E+01
  -1.0602132162600043E+01  -8.0692355790339647E+00  -8.0692355790338812E+00
  -8.0692338345731578E+00  -8.0669923490415680E+00  -8.0669912393318253E+00
  -8.0669912393317578E+00  -8.0666946158113042E+00  -8.0666946158111035E+00
  -8.0666945346527790E+00  -1.2629458164180634E+00  -1.1325263127329914E+00
  -1.1325263127329253E+00  -8.4255217113746217E-01  -6.4789984611601370E-01
  -6.4789984611599905E-01  -6.4694923820775174E-01  -5.1198715830621278E-01
  -5.1198715830619568E-01  -4.8787660794518461E-01  -4.8787660794518328E-01
  -4.6178452004154402E-01  -3.7668825500841430E-01   1.1316174033438209E-01
   1.9457417961354029E-01   1.9457417961373080E-01   3.8682928599468003E-01
   3.8682928599547983E-01   4.0592292594879753E-01   4.1563424968585494E-01
   4.2836343197253868E-01   4.2836343197259286E-01   4.6121549315907773E-01
   4.8057024254633607E-01   4.8057024254654257E-01   4.9181012993877404E-01
   4.9181012993896944E-01   5.0335134960832528E-01   5.2180650793387073E-01
   5.2180650793392402E-01   5.2277270643028917E-01   5.6003539021195792E-01
   6.3482108391417924E-01   6.3482108391422454E-01   6.6290357317728921E-01
   6.8431913713108061E-01   6.8431913713113612E-01   8.1632948150087126E-01
   8.6242389414674347E-01   8.6504015244883448E-01   8.6504015244961741E-01
   9.1561415765580634E-01   9.1561415765676424E-01   9.9249552674972108E-01
   1.0848567130525142E+00   1.1985670136499120E+00   1.1985670136500883E+00
   1.2823380810502800E+00   1.2823380810514373E+00   1.3345763795187731E+00
   1.4276523173664493E+00   1.4276523173670892E+00   2.0799976532655338E+00
   2.1122287501621830E+00   2.1122287501621893E+00   2.1528582609032423E+00
   2.1658526676030396E+00   2.1716515399192762E+00   2.1716515399193348E+00
   2.2067505783060328E+00   2.2067505783060426E+00   2.2256613078141489E+00
   2.2256613078141783E+00   2.2332941070396268E+00   2.2504471712369787E+00
   2.2588664601348620E+00   2.2588664601349526E+00   2.3113461645616455E+00
   2.3300935610153175E+00   2.3300935610154205E+00   2.3619492137075877E+00
   2.3690532118720853E+00   2.3763835370173618E+00   2.3763835370173796E+00
   2.3838756907776943E+00   2.3838756907777094E+00   2.3863949616522113E+00
   2.4092257061742890E+00   2.4392903760985334E+00   2.4392903760985893E+00
   2.5013445965628014E+00   2.5013445965629204E+00   2.5388864610930577E+00
   2.5528934462828108E+00   2.5550754764375831E+00   2.5550754764382351E+00
   2.5753723502137591E+00   2.5753723502146775E+00   2.6522747844255496E+00
   2.6632282399085234E+00   2.6681506947651998E+00   2.6681506947652966E+00
   2.7471497660708462E+00   2.7471497660708737E+00   2.8128808691218596E+00
   3.0545816525618408E+00   3.1973517876918001E+00   3.1973517876921616E+00
   3.2726791051615560E+00   3.2726791051616564E+00   3.4730713280709429E+00
   3.5138560308084612E+00   3.5138560308084692E+00   3.6852839214160493E+00
   3.7466531280282824E+00   3.7466531280291244E+00   3.8530210920788166E+00
   3.8825299818348986E+00   3.8825299818358392E+00   4.0624917157200331E+00
   4.3923041206447682E+00   4.3923041206458224E+00   4.7517809892108378E+00
   5.8201208359928618E+00   5.8201208359972263E+00   7.6524444888437504E+00
Beta Orbital Energies                      R   N=         132
  -1.0487685448790749E+02  -1.0487685448790711E+02  -1.0487685401560611E+02
  -1.1400550719873722E+01  -1.0601573955523030E+01  -1.0601573955523012E+01
  -1.0601556004981740E+01  -8.0696674791589729E+00  -8.0696674791589533E+00
  -8.0696664097578150E+00  -8.0663612772845354E+00  -8.0663605976874564E+00
  -8.0663605976873374E+00  -8.0644590593776613E+00  -8.0644590593775796E+00
  -8.0644560570914212E+00  -1.2338455477728902E+00  -1.1276579798290574E+00
  -1.1276579798289823E+00  -7.8323861188116406E-01  -6.3488027191807417E-01
  -6.3488027191806118E-01  -5.5622072293559688E-01  -5.0044217863871965E-01
  -5.0044217863871099E-01  -4.7731609907127859E-01  -4.7731609907126771E-01
  -4.6019530835530559E-01   7.8011688039990812E-02   1.3786557974642610E-01
   2.1470798626308207E-01   2.1470798626328069E-01   3.8976257671885994E-01
   3.8976257671955089E-01   4.1066410544179544E-01   4.2987014778814059E-01
   4.2987014778819793E-01   4.4018959069712160E-01   4.7605605894867775E-01
   4.8208245407340561E-01   4.8208245407363748E-01   4.9480749676047858E-01
   4.9480749676068481E-01   5.2147399595233968E-01   5.3793758635764133E-01
   5.3793758635769029E-01   5.6251374786823538E-01   5.7918202771413618E-01
   6.4256173159706509E-01   6.4256173159710261E-01   6.6894119245046502E-01
   6.9451636705767616E-01   6.9451636705774344E-01   8.3975667838494816E-01
   8.6013689662900561E-01   8.7398978592978516E-01   8.7398978593058363E-01
   9.2051401863187898E-01   9.2051401863270388E-01   1.0126734259544876E+00
   1.1069724014273703E+00   1.2177215771255527E+00   1.2177215771255931E+00
   1.2994203466681324E+00   1.2994203466688654E+00   1.3518256492556757E+00
   1.4404805833992065E+00   1.4404805833998284E+00   2.0977876538419569E+00
   2.1191504401513059E+00   2.1191504401513130E+00   2.1653547121142056E+00
   2.1757495200602937E+00   2.1757495200603554E+00   2.1864051668788793E+00
   2.2082394472731997E+00   2.2082394472732174E+00   2.2278518080396861E+00
   2.2278518080397061E+00   2.2399804699773362E+00   2.2525531500109857E+00
   2.2601270571067831E+00   2.2601270571068754E+00   2.3237263261786465E+00
   2.3338895424883099E+00   2.3338895424884178E+00   2.3656846712962620E+00
   2.3801989225628777E+00   2.3801989225629270E+00   2.3832555411452478E+00
   2.3875264173501014E+00   2.3875264173501316E+00   2.3888231135886699E+00
   2.4362818696548159E+00   2.4422481408294145E+00   2.4422481408294727E+00
   2.5054115212800872E+00   2.5054115212801271E+00   2.5470228436859053E+00