CCl3. molecule HF/cc-pVTZ                                               
SP        UHF                                                         CC-pVTZ             
Number of atoms                            I                4
Info1-9                                    I   N=           9
          11          11           0           0           0         110
           1           1           2
Full Title                                 C   N=           3
CCl3. molecule HF/cc-pVTZ           
Route                                      C   N=           4
#P UHF cc-pVTZ SCF=DIRECT SCFCON=8 GEOM=COORD   
Charge                                     I                0
Multiplicity                               I                2
Number of electrons                        I               57
Number of alpha electrons                  I               29
Number of beta electrons                   I               28
Number of basis functions                  I              132
Number of independent functions            I              132
Number of point charges in /Mol/           I                0
Number of translation vectors              I                0
Atomic numbers                             I   N=           4
           6          17          17          17
Nuclear charges                            R   N=           4
  6.00000000E+00  1.70000000E+01  1.70000000E+01  1.70000000E+01
Current cartesian coordinates              R   N=          12
 -6.23283102E-17 -2.49313241E-16  5.18246051E-01 -2.89925492E-07  3.19292661E+00
 -6.09701237E-02  2.76515570E+00 -1.59646306E+00 -6.09701237E-02 -2.76515541E+00
 -1.59646356E+00 -6.09701237E-02
Number of symbols in /Mol/                 I                0
Force Field                                I                0
Atom Types                                 C   N=           4
                                                
Int Atom Types                             I   N=           4
           0           0           0           0
MM charges                                 R   N=           4
  0.00000000E+00  0.00000000E+00  0.00000000E+00  0.00000000E+00
Integer atomic weights                     I   N=           4
          12          35          35          35
Real atomic weights                        R   N=           4
  1.20000000E+01  3.49688527E+01  3.49688527E+01  3.49688527E+01
Atom fragment info                         I   N=           4
           0           0           0           0
Atom residue num                           I   N=           4
           0           0           0           0
Nuclear spins                              I   N=           4
           0           3           3           3
Nuclear ZEff                               R   N=           4
 -3.60000000E+00 -1.42400000E+01 -1.42400000E+01 -1.42400000E+01
Nuclear ZNuc                               R   N=           4
  6.00000000E+00  1.70000000E+01  1.70000000E+01  1.70000000E+01
Nuclear QMom                               R   N=           4
  0.00000000E+00 -8.16500000E+00 -8.16500000E+00 -8.16500000E+00
Nuclear GFac                               R   N=           4
  0.00000000E+00  8.21874000E-01  8.21874000E-01  8.21874000E-01
MicOpt                                     I   N=           4
          -1          -1          -1          -1
Number of residues                         I                0
Number of secondary structures             I                0
SymInf integers                            I   N=          26
           2           2           1           1           1          -1
           1           1           0           0           0           0
           0           0           0           0           0           0
           0           0           0           0           0           0
           0           0
RotTr to input orientation                 R   N=          12
  1.00000000E+00  9.08024289E-08  0.00000000E+00 -9.08024289E-08  1.00000000E+00
  0.00000000E+00  0.00000000E+00  0.00000000E+00  1.00000000E+00 -6.23283102E-17
 -2.49313241E-16 -2.43469962E-19
Number of contracted shells                I               46
Number of primitive shells                 I              164
Pure/Cartesian d shells                    I                0
Pure/Cartesian f shells                    I                0
Highest angular momentum                   I                3
Largest degree of contraction              I               11
Shell types                                I   N=          46
           0           0           0           0           1           1
           1          -2          -2          -3           0           0
           0           0           0           1           1           1
           1          -2          -2          -3           0           0
           0           0           0           1           1           1
           1          -2          -2          -3           0           0
           0           0           0           1           1           1
           1          -2          -2          -3
Number of primitives per shell             I   N=          46
           7           6           1           1           3           1
           1           1           1           1          11           9
           8           1           1           6           6           1
           1           1           1           1          11           9
           8           1           1           6           6           1
           1           1           1           1          11           9
           8           1           1           6           6           1
           1           1           1           1
Shell to atom map                          I   N=          46
           1           1           1           1           1           1
           1           1           1           1           2           2
           2           2           2           2           2           2
           2           2           2           2           3           3
           3           3           3           3           3           3
           3           3           3           3           4           4
           4           4           4           4           4           4
           4           4           4           4
Primitive exponents                        R   N=         164
  8.23600000E+03  1.23500000E+03  2.80800000E+02  7.92700000E+01  2.55900000E+01
  8.99700000E+00  3.31900000E+00  2.80800000E+02  7.92700000E+01  2.55900000E+01
  8.99700000E+00  3.31900000E+00  3.64300000E-01  9.05900000E-01  1.28500000E-01
  1.87100000E+01  4.13300000E+00  1.20000000E+00  3.82700000E-01  1.20900000E-01
  1.09700000E+00  3.18000000E-01  7.61000000E-01  4.56100000E+05  6.83300000E+04
  1.55500000E+04  4.40500000E+03  1.43900000E+03  5.20400000E+02  2.03100000E+02
  8.39600000E+01  3.62000000E+01  1.58300000E+01  6.33400000E+00  4.40500000E+03
  1.43900000E+03  5.20400000E+02  2.03100000E+02  8.39600000E+01  3.62000000E+01
  1.58300000E+01  6.33400000E+00  2.69400000E+00  1.43900000E+03  2.03100000E+02
  8.39600000E+01  3.62000000E+01  1.58300000E+01  6.33400000E+00  2.69400000E+00
  4.31300000E-01  9.76800000E-01  1.62500000E-01  6.63300000E+02  1.56800000E+02
  4.99800000E+01  1.84200000E+01  7.24000000E+00  2.92200000E+00  1.56800000E+02
  4.99800000E+01  1.84200000E+01  7.24000000E+00  2.92200000E+00  3.81800000E-01
  1.02200000E+00  1.30100000E-01  1.04600000E+00  3.44000000E-01  7.06000000E-01
  4.56100000E+05  6.83300000E+04  1.55500000E+04  4.40500000E+03  1.43900000E+03
  5.20400000E+02  2.03100000E+02  8.39600000E+01  3.62000000E+01  1.58300000E+01
  6.33400000E+00  4.40500000E+03  1.43900000E+03  5.20400000E+02  2.03100000E+02
  8.39600000E+01  3.62000000E+01  1.58300000E+01  6.33400000E+00  2.69400000E+00
  1.43900000E+03  2.03100000E+02  8.39600000E+01  3.62000000E+01  1.58300000E+01
  6.33400000E+00  2.69400000E+00  4.31300000E-01  9.76800000E-01  1.62500000E-01
  6.63300000E+02  1.56800000E+02  4.99800000E+01  1.84200000E+01  7.24000000E+00
  2.92200000E+00  1.56800000E+02  4.99800000E+01  1.84200000E+01  7.24000000E+00
  2.92200000E+00  3.81800000E-01  1.02200000E+00  1.30100000E-01  1.04600000E+00
  3.44000000E-01  7.06000000E-01  4.56100000E+05  6.83300000E+04  1.55500000E+04
  4.40500000E+03  1.43900000E+03  5.20400000E+02  2.03100000E+02  8.39600000E+01
  3.62000000E+01  1.58300000E+01  6.33400000E+00  4.40500000E+03  1.43900000E+03
  5.20400000E+02  2.03100000E+02  8.39600000E+01  3.62000000E+01  1.58300000E+01
  6.33400000E+00  2.69400000E+00  1.43900000E+03  2.03100000E+02  8.39600000E+01
  3.62000000E+01  1.58300000E+01  6.33400000E+00  2.69400000E+00  4.31300000E-01
  9.76800000E-01  1.62500000E-01  6.63300000E+02  1.56800000E+02  4.99800000E+01
  1.84200000E+01  7.24000000E+00  2.92200000E+00  1.56800000E+02  4.99800000E+01
  1.84200000E+01  7.24000000E+00  2.92200000E+00  3.81800000E-01  1.02200000E+00
  1.30100000E-01  1.04600000E+00  3.44000000E-01  7.06000000E-01
Contraction coefficients                   R   N=         164
  5.41978320E-04  4.19287382E-03  2.15221621E-02  8.35343220E-02  2.39582846E-01
  4.42852842E-01  3.51799562E-01 -5.94922494E-05 -1.14815831E-03 -1.00191374E-02
 -6.12194923E-02 -1.73269854E-01  1.07291519E+00  1.00000000E+00  1.00000000E+00
  3.94263872E-02  2.44088985E-01  8.15492009E-01  1.00000000E+00  1.00000000E+00
  1.00000000E+00  1.00000000E+00  1.00000000E+00  4.93229477E-05  3.83207967E-04
  2.00947816E-03  8.38950124E-03  2.94843950E-02  8.78759948E-02  2.11589759E-01
  3.65611554E-01  3.41246350E-01  1.02162570E-01  2.14249949E-03 -2.21747925E-06
 -1.71189708E-04 -1.27922846E-03 -9.32956265E-03 -3.98910062E-02 -1.05536085E-01
  9.36202446E-03  5.10511140E-01  5.73150737E-01  4.03949245E-06  2.12481765E-04
  8.59484452E-04  4.63248159E-03  4.47343490E-04 -7.38438245E-02 -3.62271994E-01
  1.16620337E+00  1.00000000E+00  1.00000000E+00  2.47206402E-03  1.97550234E-02
  9.09917355E-02  2.63187834E-01  4.49078073E-01  3.60183072E-01  3.03427809E-05
 -1.22475826E-03 -6.01429772E-03 -2.76401323E-02  4.35105612E-04  1.00307272E+00
  1.00000000E+00  1.00000000E+00  1.00000000E+00  1.00000000E+00  1.00000000E+00
  4.93229477E-05  3.83207967E-04  2.00947816E-03  8.38950124E-03  2.94843950E-02
  8.78759948E-02  2.11589759E-01  3.65611554E-01  3.41246350E-01  1.02162570E-01
  2.14249949E-03 -2.21747925E-06 -1.71189708E-04 -1.27922846E-03 -9.32956265E-03
 -3.98910062E-02 -1.05536085E-01  9.36202446E-03  5.10511140E-01  5.73150737E-01
  4.03949245E-06  2.12481765E-04  8.59484452E-04  4.63248159E-03  4.47343490E-04
 -7.38438245E-02 -3.62271994E-01  1.16620337E+00  1.00000000E+00  1.00000000E+00
  2.47206402E-03  1.97550234E-02  9.09917355E-02  2.63187834E-01  4.49078073E-01
  3.60183072E-01  3.03427809E-05 -1.22475826E-03 -6.01429772E-03 -2.76401323E-02
  4.35105612E-04  1.00307272E+00  1.00000000E+00  1.00000000E+00  1.00000000E+00
  1.00000000E+00  1.00000000E+00  4.93229477E-05  3.83207967E-04  2.00947816E-03
  8.38950124E-03  2.94843950E-02  8.78759948E-02  2.11589759E-01  3.65611554E-01
  3.41246350E-01  1.02162570E-01  2.14249949E-03 -2.21747925E-06 -1.71189708E-04
 -1.27922846E-03 -9.32956265E-03 -3.98910062E-02 -1.05536085E-01  9.36202446E-03
  5.10511140E-01  5.73150737E-01  4.03949245E-06  2.12481765E-04  8.59484452E-04
  4.63248159E-03  4.47343490E-04 -7.38438245E-02 -3.62271994E-01  1.16620337E+00
  1.00000000E+00  1.00000000E+00  2.47206402E-03  1.97550234E-02  9.09917355E-02
  2.63187834E-01  4.49078073E-01  3.60183072E-01  3.03427809E-05 -1.22475826E-03
 -6.01429772E-03 -2.76401323E-02  4.35105612E-04  1.00307272E+00  1.00000000E+00
  1.00000000E+00  1.00000000E+00  1.00000000E+00  1.00000000E+00
Coordinates of each shell                  R   N=         138
  0.00000000E+00  0.00000000E+00  5.18246051E-01  0.00000000E+00  0.00000000E+00
  5.18246051E-01  0.00000000E+00  0.00000000E+00  5.18246051E-01  0.00000000E+00
  0.00000000E+00  5.18246051E-01  0.00000000E+00  0.00000000E+00  5.18246051E-01
  0.00000000E+00  0.00000000E+00  5.18246051E-01  0.00000000E+00  0.00000000E+00
  5.18246051E-01  0.00000000E+00  0.00000000E+00  5.18246051E-01  0.00000000E+00
  0.00000000E+00  5.18246051E-01  0.00000000E+00  0.00000000E+00  5.18246051E-01
 -3.53668019E-18  3.19292661E+00 -6.09701237E-02 -3.53668019E-18  3.19292661E+00
 -6.09701237E-02 -3.53668019E-18  3.19292661E+00 -6.09701237E-02 -3.53668019E-18
  3.19292661E+00 -6.09701237E-02 -3.53668019E-18  3.19292661E+00 -6.09701237E-02
 -3.53668019E-18  3.19292661E+00 -6.09701237E-02 -3.53668019E-18  3.19292661E+00
 -6.09701237E-02 -3.53668019E-18  3.19292661E+00 -6.09701237E-02 -3.53668019E-18
  3.19292661E+00 -6.09701237E-02 -3.53668019E-18  3.19292661E+00 -6.09701237E-02
 -3.53668019E-18  3.19292661E+00 -6.09701237E-02 -3.53668019E-18  3.19292661E+00
 -6.09701237E-02  2.76515556E+00 -1.59646331E+00 -6.09701237E-02  2.76515556E+00
 -1.59646331E+00 -6.09701237E-02  2.76515556E+00 -1.59646331E+00 -6.09701237E-02
  2.76515556E+00 -1.59646331E+00 -6.09701237E-02  2.76515556E+00 -1.59646331E+00
 -6.09701237E-02  2.76515556E+00 -1.59646331E+00 -6.09701237E-02  2.76515556E+00
 -1.59646331E+00 -6.09701237E-02  2.76515556E+00 -1.59646331E+00 -6.09701237E-02
  2.76515556E+00 -1.59646331E+00 -6.09701237E-02  2.76515556E+00 -1.59646331E+00
 -6.09701237E-02  2.76515556E+00 -1.59646331E+00 -6.09701237E-02  2.76515556E+00
 -1.59646331E+00 -6.09701237E-02 -2.76515556E+00 -1.59646331E+00 -6.09701237E-02
 -2.76515556E+00 -1.59646331E+00 -6.09701237E-02 -2.76515556E+00 -1.59646331E+00
 -6.09701237E-02 -2.76515556E+00 -1.59646331E+00 -6.09701237E-02 -2.76515556E+00
 -1.59646331E+00 -6.09701237E-02 -2.76515556E+00 -1.59646331E+00 -6.09701237E-02
 -2.76515556E+00 -1.59646331E+00 -6.09701237E-02 -2.76515556E+00 -1.59646331E+00
 -6.09701237E-02 -2.76515556E+00 -1.59646331E+00 -6.09701237E-02 -2.76515556E+00
 -1.59646331E+00 -6.09701237E-02 -2.76515556E+00 -1.59646331E+00 -6.09701237E-02
 -2.76515556E+00 -1.59646331E+00 -6.09701237E-02
Num ILSW                                   I              100
ILSW                                       I   N=         100
           1           0           0           0           2           0
           0           0           0           0           0          -1
           5           0           0           0           0           0
           0           0           0           0           0           0
           1           0           0           0           0           0
           0           0      100000           0          -1           0
           0           0           0           0           0           0
           0           0           0           1           0           0
           0 -2000000000           1           0           0           0
           0           0           4          52           0           0
           0           0           0           0           0           0
           0           0           0           4           0           1
           0           0           0           0           0           0
           0           0           0           0           0           0
           0           0           0           0           0           0
           0           0           0           0           0           0
           0           0           0           0
Num RLSW                                   I               52
RLSW                                       R   N=          52
  1.00000000E+00  1.00000000E+00  1.00000000E+00  1.00000000E+00  1.00000000E+00
  0.00000000E+00  0.00000000E+00  1.00000000E+00  0.00000000E+00  0.00000000E+00
  0.00000000E+00  0.00000000E+00  1.00000000E+00  0.00000000E+00  0.00000000E+00
  0.00000000E+00  0.00000000E+00  1.00000000E+00  0.00000000E+00  0.00000000E+00
  0.00000000E+00  0.00000000E+00  1.00000000E+00  0.00000000E+00  0.00000000E+00
  0.00000000E+00  0.00000000E+00  1.00000000E+00  0.00000000E+00  0.00000000E+00
  0.00000000E+00  0.00000000E+00  1.00000000E+00  0.00000000E+00  0.00000000E+00
  0.00000000E+00  0.00000000E+00  0.00000000E+00  1.00000000E+00  1.00000000E+00
  0.00000000E+00  1.00000000E+00  0.00000000E+00  0.00000000E+00  0.00000000E+00
  0.00000000E+00  0.00000000E+00  0.00000000E+00  0.00000000E+00  0.00000000E+00
  0.00000000E+00  0.00000000E+00
MxBond                                     I                3
NBond                                      I   N=           4
           3           1           1           1
IBond                                      I   N=          12
           2           3           4           1           0           0
           1           0           0           1           0           0
RBond                                      R   N=          12
  1.00000000E+00  1.00000000E+00  1.00000000E+00  1.00000000E+00  0.00000000E+00
  0.00000000E+00  1.00000000E+00  0.00000000E+00  0.00000000E+00  1.00000000E+00
  0.00000000E+00  0.00000000E+00
Virial Ratio                               R      2.000039897904366E+00
SCF Energy                                 R     -1.416377193708473E+03
Total Energy                               R     -1.416377193708473E+03
S**2                                       R      7.694342130458729E-01
S**2 after annihilation                    R      7.503296478640189E-01
RMS Density                                R      7.870460868558582E-09
Job Status                                 I                1
Nuclear derivative order                   I                0
External E-field                           R   N=          35
  0.00000000E+00  0.00000000E+00  0.00000000E+00  0.00000000E+00  0.00000000E+00
  0.00000000E+00  0.00000000E+00  0.00000000E+00  0.00000000E+00  0.00000000E+00
  0.00000000E+00  0.00000000E+00  0.00000000E+00  0.00000000E+00  0.00000000E+00
  0.00000000E+00  0.00000000E+00  0.00000000E+00  0.00000000E+00  0.00000000E+00
  0.00000000E+00  0.00000000E+00  0.00000000E+00  0.00000000E+00  0.00000000E+00
  0.00000000E+00  0.00000000E+00  0.00000000E+00  0.00000000E+00  0.00000000E+00
  0.00000000E+00  0.00000000E+00  0.00000000E+00  0.00000000E+00  0.00000000E+00
IOpCl                                      I                1
IROHF                                      I                0
Alpha Orbital Energies                     R   N=         132
 -1.04877365E+02 -1.04877365E+02 -1.04877364E+02 -1.14303613E+01 -1.06021473E+01
 -1.06021473E+01 -1.06021322E+01 -8.06923558E+00 -8.06923558E+00 -8.06923383E+00
 -8.06699235E+00 -8.06699124E+00 -8.06699124E+00 -8.06669462E+00 -8.06669462E+00
 -8.06669453E+00 -1.26294582E+00 -1.13252631E+00 -1.13252631E+00 -8.42552171E-01
 -6.47899846E-01 -6.47899846E-01 -6.46949238E-01 -5.11987158E-01 -5.11987158E-01
 -4.87876608E-01 -4.87876608E-01 -4.61784520E-01 -3.76688255E-01  1.13161740E-01
  1.94574180E-01  1.94574180E-01  3.86829286E-01  3.86829286E-01  4.05922926E-01
  4.15634250E-01  4.28363432E-01  4.28363432E-01  4.61215493E-01  4.80570243E-01
  4.80570243E-01  4.91810130E-01  4.91810130E-01  5.03351350E-01  5.21806508E-01
  5.21806508E-01  5.22772706E-01  5.60035390E-01  6.34821084E-01  6.34821084E-01
  6.62903573E-01  6.84319137E-01  6.84319137E-01  8.16329482E-01  8.62423894E-01
  8.65040152E-01  8.65040152E-01  9.15614158E-01  9.15614158E-01  9.92495527E-01
  1.08485671E+00  1.19856701E+00  1.19856701E+00  1.28233808E+00  1.28233808E+00
  1.33457638E+00  1.42765232E+00  1.42765232E+00  2.07999765E+00  2.11222875E+00
  2.11222875E+00  2.15285826E+00  2.16585267E+00  2.17165154E+00  2.17165154E+00
  2.20675058E+00  2.20675058E+00  2.22566131E+00  2.22566131E+00  2.23329411E+00
  2.25044717E+00  2.25886646E+00  2.25886646E+00  2.31134616E+00  2.33009356E+00
  2.33009356E+00  2.36194921E+00  2.36905321E+00  2.37638354E+00  2.37638354E+00
  2.38387569E+00  2.38387569E+00  2.38639496E+00  2.40922571E+00  2.43929038E+00
  2.43929038E+00  2.50134460E+00  2.50134460E+00  2.53888646E+00  2.55289345E+00
  2.55507548E+00  2.55507548E+00  2.57537235E+00  2.57537235E+00  2.65227478E+00
  2.66322824E+00  2.66815069E+00  2.66815069E+00  2.74714977E+00  2.74714977E+00
  2.81288087E+00  3.05458165E+00  3.19735179E+00  3.19735179E+00  3.27267911E+00
  3.27267911E+00  3.47307133E+00  3.51385603E+00  3.51385603E+00  3.68528392E+00
  3.74665313E+00  3.74665313E+00  3.85302109E+00  3.88252998E+00  3.88252998E+00
  4.06249172E+00  4.39230412E+00  4.39230412E+00  4.75178099E+00  5.82012084E+00
  5.82012084E+00  7.65244449E+00
Beta Orbital Energies                      R   N=         132
 -1.04876854E+02 -1.04876854E+02 -1.04876854E+02 -1.14005507E+01 -1.06015740E+01
 -1.06015740E+01 -1.06015560E+01 -8.06966748E+00 -8.06966748E+00 -8.06966641E+00
 -8.06636128E+00 -8.06636060E+00 -8.06636060E+00 -8.06445906E+00 -8.06445906E+00
 -8.06445606E+00 -1.23384555E+00 -1.12765798E+00 -1.12765798E+00 -7.83238612E-01
 -6.34880272E-01 -6.34880272E-01 -5.56220723E-01 -5.00442179E-01 -5.00442179E-01
 -4.77316099E-01 -4.77316099E-01 -4.60195308E-01  7.80116880E-02  1.37865580E-01
  2.14707986E-01  2.14707986E-01  3.89762577E-01  3.89762577E-01  4.10664105E-01
  4.29870148E-01  4.29870148E-01  4.40189591E-01  4.76056059E-01  4.82082454E-01
  4.82082454E-01  4.94807497E-01  4.94807497E-01  5.21473996E-01  5.37937586E-01
  5.37937586E-01  5.62513748E-01  5.79182028E-01  6.42561732E-01  6.42561732E-01
  6.68941192E-01  6.94516367E-01  6.94516367E-01  8.39756678E-01  8.60136897E-01
  8.73989786E-01  8.73989786E-01  9.20514019E-01  9.20514019E-01  1.01267343E+00
  1.10697240E+00  1.21772158E+00  1.21772158E+00  1.29942035E+00  1.29942035E+00
  1.35182565E+00  1.44048058E+00  1.44048058E+00  2.09778765E+00  2.11915044E+00
  2.11915044E+00  2.16535471E+00  2.17574952E+00  2.17574952E+00  2.18640517E+00
  2.20823945E+00  2.20823945E+00  2.22785181E+00  2.22785181E+00  2.23998047E+00
  2.25255315E+00  2.26012706E+00  2.26012706E+00  2.32372633E+00  2.33388954E+00
  2.33388954E+00  2.36568467E+00  2.38019892E+00  2.38019892E+00  2.38325554E+00
  2.38752642E+00  2.38752642E+00  2.38882311E+00  2.43628187E+00  2.44224814E+00
  2.44224814E+00  2.50541152E+00  2.50541152E+00  2.54702284E+00  2.55299751E+00
  2.55526836E+00  2.55526836E+00  2.58158408E+00  2.58158408E+00  2.66380480E+00
  2.66763750E+00  2.68315538E+00  2.68315538E+00  2.76158320E+00  2.76158320E+00
  2.83460945E+00  3.07439596E+00  3.21852867E+00  3.21852867E+00  3.29053000E+00
  3.29053000E+00  3.51443694E+00  3.55284422E+00  3.55284422E+00  3.71947579E+00
  3.76742276E+00  3.76742276E+00  3.86949031E+00  3.90377670E+00  3.90377670E+00
  4.07010211E+00  4.40075750E+00  4.40075750E+00  4.75528972E+00  5.82378494E+00
  5.82378494E+00  7.67585379E+00
Alpha MO coefficients                      R   N=       17424
  4.56936619E-12  2.33485802E-11 -1.14980079E-11  1.33022177E-11  0.00000000E+00
  9.05058615E-06  5.34646238E-13  0.00000000E+00 -5.75573769E-05 -5.73014580E-12
  0.00000000E+00  3.83557057E-06 -2.15702440E-12 -1.58312382E-12  0.00000000E+00
  1.99927852E-06  4.41557848E-06  0.00000000E+00 -8.98146971E-12  0.00000000E+00
  1.10453451E-05  3.34721407E-05  0.00000000E+00  1.47507660E-12  0.00000000E+00
  5.51991924E-06 -4.13798460E-06  0.00000000E+00  0.00000000E+00 -3.53765333E-12
  8.16114045E-01  1.60899778E-03  1.52086891E-04 -3.45586708E-04 -4.39342926E-05
  0.00000000E+00 -5.29839677E-05  9.57188992E-06  0.00000000E+00 -6.66956939E-05
  1.15801197E-05  0.00000000E+00  4.51191844E-05 -8.15584105E-06  0.00000000E+00
  1.69170786E-05 -2.54508772E-06 -4.27632255E-06  0.00000000E+00 -1.46100977E-06
 -5.55624507E-06  0.00000000E+00 -6.89072398E-06  0.00000000E+00 -5.64538303E-06
 -1.75743938E-05  0.00000000E+00 -1.69900883E-06  0.00000000E+00  2.76673431E-06
 -2.79398139E-06  0.00000000E+00  0.00000000E+00  6.66578505E-06 -4.08057383E-01
 -8.04499596E-04 -7.60435020E-05  1.72793502E-04  2.19671519E-05  2.27971228E-05
 -1.34982393E-05 -4.78594923E-06  2.72362776E-05 -1.95211313E-05 -5.79006495E-06
 -1.90840142E-05  1.20647427E-05  4.07792428E-06 -6.93248245E-06  4.90966901E-06
  1.27254476E-06  2.13816228E-06  9.78113415E-07  2.33131326E-07 -1.09635445E-06
  2.57492163E-06  3.44536693E-06  1.20719670E-06 -3.55446239E-06 -3.25933877E-06
  8.26480858E-06  8.49505427E-07 -1.34384114E-06  4.39137007E-07  2.06312465E-07
  1.73222175E-06 -6.56414009E-09 -3.33289436E-06 -4.08057383E-01 -8.04499596E-04
 -7.60435020E-05  1.72793502E-04  2.19671519E-05 -2.27971228E-05 -1.34982393E-05
 -4.78594923E-06 -2.72362776E-05 -1.95211313E-05 -5.79006495E-06  1.90840142E-05
  1.20647427E-05  4.07792428E-06  6.93248245E-06  4.90966901E-06  1.27254476E-06
  2.13816228E-06 -9.78113415E-07  2.33131326E-07 -1.09635445E-06 -2.57492163E-06
  3.44536693E-06 -1.20719670E-06 -3.55446239E-06 -3.25933877E-06 -8.26480858E-06
  8.49505427E-07  1.34384114E-06  4.39137007E-07  2.06312465E-07 -1.73222175E-06
  6.56414009E-09 -3.33289436E-06  0.00000000E+00  0.00000000E+00  0.00000000E+00
  0.00000000E+00  9.05058615E-06  0.00000000E+00  0.00000000E+00 -5.75573769E-05
  0.00000000E+00  0.00000000E+00  3.83557057E-06  0.00000000E+00  0.00000000E+00
  0.00000000E+00  1.99927852E-06  0.00000000E+00  0.00000000E+00  4.41557848E-06
  0.00000000E+00  1.10453451E-05  0.00000000E+00  0.00000000E+00  3.34721407E-05
  0.00000000E+00  5.51991924E-06  0.00000000E+00  0.00000000E+00 -4.13798460E-06
 -7.79727931E-16  0.00000000E+00  0.00000000E+00  0.00000000E+00  0.00000000E+00
  0.00000000E+00  0.00000000E+00 -3.36314345E-07  0.00000000E+00  0.00000000E+00
 -3.79625915E-06  0.00000000E+00  0.00000000E+00  1.04658197E-06  0.00000000E+00
  0.00000000E+00  9.07198401E-07  0.00000000E+00  0.00000000E+00  0.00000000E+00
  7.97845368E-07  0.00000000E+00  0.00000000E+00  3.90277245E-07  0.00000000E+00
 -2.85748705E-06  0.00000000E+00  0.00000000E+00  1.51235069E-06  0.00000000E+00
 -3.36730038E-07  0.00000000E+00  0.00000000E+00  1.20641116E-06  7.57961719E-09
  0.00000000E+00  7.06775703E-01  1.39343336E-03  1.31711144E-04 -2.99286954E-04
 -3.80482167E-05 -3.98220660E-05  2.27971094E-05  8.28950230E-06 -5.09708487E-05
  2.72362620E-05  1.00286808E-05  3.41010439E-05 -1.90840025E-05 -7.06316771E-06
  1.29146091E-05 -6.93248181E-06 -2.20411114E-06 -3.70340454E-06 -8.96296247E-07
  9.78113118E-07  2.57492034E-06 -4.06961561E-06 -5.96754487E-06 -4.94841038E-06
  1.20719515E-06  8.26480473E-06 -1.28027110E-05 -1.47138539E-06  1.99086919E-06
 -1.34384004E-06  1.73222110E-06 -1.79388381E-06 -3.78980817E-09  5.77274025E-06
 -7.06775703E-01 -1.39343336E-03 -1.31711144E-04  2.99286954E-04  3.80482167E-05
 -3.98220660E-05 -2.27971094E-05 -8.28950230E-06 -5.09708487E-05 -2.72362620E-05
 -1.00286808E-05  3.41010439E-05  1.90840025E-05  7.06316771E-06  1.29146091E-05
  6.93248181E-06  2.20411114E-06  3.70340454E-06 -8.96296247E-07 -9.78113118E-07
 -2.57492034E-06 -4.06961561E-06  5.96754487E-06 -4.94841038E-06 -1.20719515E-06
 -8.26480473E-06 -1.28027110E-05  1.47138539E-06  1.99086919E-06  1.34384004E-06
 -1.73222110E-06 -1.79388381E-06 -3.78980817E-09 -5.77274025E-06 -1.09726641E-05
 -5.60787516E-05  2.76157208E-05 -3.20075474E-05  0.00000000E+00  3.76836767E-12
 -1.28590290E-06  0.00000000E+00 -2.39632009E-11  1.37691233E-05  0.00000000E+00
  1.60361276E-12  5.19211828E-06  3.79966635E-06  0.00000000E+00  8.32850856E-13
  1.83872512E-12  0.00000000E+00  2.15765130E-05  0.00000000E+00  4.59756799E-12
  1.39338925E-11  0.00000000E+00 -3.54028707E-06  0.00000000E+00  2.29775846E-12
 -1.72259297E-12  0.00000000E+00  0.00000000E+00  8.49888526E-06  5.77079859E-01
  1.13042515E-03  9.02591159E-05 -2.37986767E-04 -8.98411724E-06  0.00000000E+00
 -3.73696043E-05  6.83622092E-06  0.00000000E+00 -4.31976719E-05  8.20535242E-06
  0.00000000E+00  3.24097738E-05 -6.00807385E-06  0.00000000E+00  1.77672515E-06
 -1.43518678E-06 -1.61415743E-06  0.00000000E+00 -8.26727795E-07 -3.58162190E-06
  0.00000000E+00 -7.91195542E-06  0.00000000E+00 -4.31009312E-06 -1.06762028E-05
  0.00000000E+00 -1.61677184E-06  0.00000000E+00  3.06870666E-06 -1.77654040E-06
  0.00000000E+00  0.00000000E+00  2.94137267E-06  5.77079350E-01  1.13042415E-03
  9.02590210E-05 -2.37986551E-04 -8.98408979E-06 -3.23629980E-05  1.86847855E-05
  6.83621494E-06 -3.74102458E-05  2.15988139E-05  8.20534519E-06  2.80676632E-05
 -1.62048725E-05 -6.00806876E-06  1.53868013E-06 -8.88357010E-07 -1.43518518E-06
 -1.61415476E-06 -7.15966339E-07  4.13363691E-07  1.79080934E-06 -3.10177247E-06
 -7.91195112E-06 -3.73264760E-06  2.15504390E-06  5.33809636E-06 -9.24585302E-06
 -1.61677077E-06  2.65757637E-06 -1.53435257E-06  8.88269703E-07 -1.53852739E-06
 -2.52282372E-15  2.94136851E-06  5.77079350E-01  1.13042415E-03  9.02590210E-05
 -2.37986551E-04 -8.98408979E-06  3.23629980E-05  1.86847855E-05  6.83621494E-06
  3.74102458E-05  2.15988139E-05  8.20534519E-06 -2.80676632E-05 -1.62048725E-05
 -6.00806876E-06 -1.53868013E-06 -8.88357010E-07 -1.43518518E-06 -1.61415476E-06
  7.15966339E-07  4.13363691E-07  1.79080934E-06  3.10177247E-06 -7.91195112E-06
  3.73264760E-06  2.15504390E-06  5.33809636E-06  9.24585302E-06 -1.61677077E-06
 -2.65757637E-06 -1.53435257E-06  8.88269703E-07  1.53852739E-06  2.52282372E-15
  2.94136851E-06  9.78306746E-01 -8.77931182E-03  4.19246481E-02  1.65999015E-03
  0.00000000E+00 -4.78233162E-15 -1.25338965E-03  0.00000000E+00  2.66538785E-14
  1.27608308E-03  0.00000000E+00  4.81522182E-14 -4.12210681E-04  7.94949099E-04
  0.00000000E+00 -2.24541412E-16  8.47912636E-16  0.00000000E+00  4.13444144E-04
  0.00000000E+00 -7.21153825E-15 -2.18535375E-14  0.00000000E+00 -4.85168048E-07
  0.00000000E+00 -2.55518464E-15  2.85249405E-15  0.00000000E+00  0.00000000E+00
  1.14966339E-05 -2.94746313E-05  3.25024042E-04  5.42488668E-04 -2.68720265E-04
  1.18865215E-04  0.00000000E+00  3.22347241E-05 -1.72519540E-05  0.00000000E+00
 -8.38157057E-04  6.47593227E-05  0.00000000E+00 -1.17467291E-06  4.06813294E-05
  0.00000000E+00 -7.15028680E-05  1.19479281E-04 -4.82262199E-05  0.00000000E+00